HF file generated by AutoMR of MOKIT
SP        RHF                                                         3-21G
Number of atoms                            I                4
Info1-9                                    I   N=           9
          14          13           0           0           0         110
           1           1           2
Charge                                     I                0
Multiplicity                               I                1
Number of electrons                        I                4
Number of alpha electrons                  I                2
Number of beta electrons                   I                2
Number of basis functions                  I                8
Number of independent functions            I                8
Number of point charges in /Mol/           I                0
Number of translation vectors              I                0
Atomic numbers                             I   N=           4
           1           1           1           1
Nuclear charges                            R   N=           4
  1.00000000E+00  1.00000000E+00  1.00000000E+00  1.00000000E+00
Current cartesian coordinates              R   N=          12
  0.00000000E+00  0.00000000E+00  0.00000000E+00  0.00000000E+00  0.00000000E+00
  1.88972613E+00  0.00000000E+00  0.00000000E+00  3.77945227E+00  0.00000000E+00
  0.00000000E+00  5.66917840E+00
Force Field                                I                0
Int Atom Types                             I   N=           4
           0           0           0           0
MM charges                                 R   N=           4
  0.00000000E+00  0.00000000E+00  0.00000000E+00  0.00000000E+00
Integer atomic weights                     I   N=           4
           1           1           1           1
Real atomic weights                        R   N=           4
  1.00782504E+00  1.00782504E+00  1.00782504E+00  1.00782504E+00
Atom fragment info                         I   N=           4
           0           0           0           0
Atom residue num                           I   N=           4
           0           0           0           0
Nuclear spins                              I   N=           4
           1           1           1           1
Nuclear ZEff                               R   N=           4
 -1.00000000E+00 -1.00000000E+00 -1.00000000E+00 -1.00000000E+00
Nuclear QMom                               R   N=           4
  0.00000000E+00  0.00000000E+00  0.00000000E+00  0.00000000E+00
Nuclear GFac                               R   N=           4
  2.79284600E+00  2.79284600E+00  2.79284600E+00  2.79284600E+00
MicOpt                                     I   N=           4
          -1          -1          -1          -1
Number of contracted shells                I                8
Number of primitive shells                 I               12
Pure/Cartesian d shells                    I                0
Pure/Cartesian f shells                    I                0
Highest angular momentum                   I                0
Largest degree of contraction              I                2
Shell types                                I   N=           8
           0           0           0           0           0           0
           0           0
Number of primitives per shell             I   N=           8
           2           1           2           1           2           1
           2           1
Shell to atom map                          I   N=           8
           1           1           2           2           3           3
           4           4
Primitive exponents                        R   N=          12
  5.44717800E+00  8.24547240E-01  1.83191580E-01  5.44717800E+00  8.24547240E-01
  1.83191580E-01  5.44717800E+00  8.24547240E-01  1.83191580E-01  5.44717800E+00
  8.24547240E-01  1.83191580E-01
Contraction coefficients                   R   N=          12
  1.56284979E-01  9.04690877E-01  1.00000000E+00  1.56284979E-01  9.04690877E-01
  1.00000000E+00  1.56284979E-01  9.04690877E-01  1.00000000E+00  1.56284979E-01
  9.04690877E-01  1.00000000E+00
Coordinates of each shell                  R   N=          24
  0.00000000E+00  0.00000000E+00  0.00000000E+00  0.00000000E+00  0.00000000E+00
  0.00000000E+00  0.00000000E+00  0.00000000E+00  1.88972613E+00  0.00000000E+00
  0.00000000E+00  1.88972613E+00  0.00000000E+00  0.00000000E+00  3.77945227E+00
  0.00000000E+00  0.00000000E+00  3.77945227E+00  0.00000000E+00  0.00000000E+00
  5.66917840E+00  0.00000000E+00  0.00000000E+00  5.66917840E+00
Constraint Structure                       R   N=          12
  0.00000000E+00  0.00000000E+00  0.00000000E+00  0.00000000E+00  0.00000000E+00
  1.88972613E+00  0.00000000E+00  0.00000000E+00  3.77945227E+00  0.00000000E+00
  0.00000000E+00  5.66917840E+00
Num ILSW                                   I              100
ILSW                                       I   N=         100
           0           0           0           0           2           0
           0           0           0           0           0          -1
           0           0           0           0           0           0
           0           0           0           0           0           0
           1           1           0           0           0           0
           0           0      100000           0          -1           0
           0           0           0           0           0           0
           0           0           0           1           0           0
           0           0           1           0           0           0
           0           0           4          40           0           0
           0           0           0           0           0           0
           0           0           0           0           0           0
           0           0           0           0           0           0
           0           0           0           0           0           0
           0           0           0           0           0           0
           0           0           0           0           0           0
           0           0           0           0
Num RLSW                                   I               40
RLSW                                       R   N=          40
  1.00000000E+00  1.00000000E+00  1.00000000E+00  1.00000000E+00  1.00000000E+00
  0.00000000E+00  0.00000000E+00  1.00000000E+00  0.00000000E+00  0.00000000E+00
  0.00000000E+00  0.00000000E+00  1.00000000E+00  0.00000000E+00  0.00000000E+00
  0.00000000E+00  0.00000000E+00  1.00000000E+00  0.00000000E+00  0.00000000E+00
  0.00000000E+00  0.00000000E+00  1.00000000E+00  0.00000000E+00  0.00000000E+00
  0.00000000E+00  0.00000000E+00  1.00000000E+00  0.00000000E+00  0.00000000E+00
  0.00000000E+00  0.00000000E+00  1.00000000E+00  0.00000000E+00  0.00000000E+00
  0.00000000E+00  0.00000000E+00  0.00000000E+00  1.00000000E+00  1.00000000E+00
MxBond                                     I                1
NBond                                      I   N=           4
           0           0           0           0
IBond                                      I   N=           4
           0           0           0           0
RBond                                      R   N=           4
  0.00000000E+00  0.00000000E+00  0.00000000E+00  0.00000000E+00
Virial Ratio                               R      2.096239623508323E+00
SCF Energy                                 R     -2.153809514410517E+00
Total Energy                               R     -2.153809514410517E+00
RMS Density                                R      1.331821102970739E-10
External E-field                           R   N=          35
  0.00000000E+00  0.00000000E+00  0.00000000E+00  0.00000000E+00  0.00000000E+00
  0.00000000E+00  0.00000000E+00  0.00000000E+00  0.00000000E+00  0.00000000E+00
  0.00000000E+00  0.00000000E+00  0.00000000E+00  0.00000000E+00  0.00000000E+00
  0.00000000E+00  0.00000000E+00  0.00000000E+00  0.00000000E+00  0.00000000E+00
  0.00000000E+00  0.00000000E+00  0.00000000E+00  0.00000000E+00  0.00000000E+00
  0.00000000E+00  0.00000000E+00  0.00000000E+00  0.00000000E+00  0.00000000E+00
  0.00000000E+00  0.00000000E+00  0.00000000E+00  0.00000000E+00  0.00000000E+00
IOpCl                                      I                0
IROHF                                      I                0
Alpha Orbital Energies                     R   N=           8
  2.00000000E+00  2.00000000E+00  0.00000000E+00  0.00000000E+00  0.00000000E+00
  0.00000000E+00  0.00000000E+00  0.00000000E+00
Alpha MO coefficients                      R   N=          64
 -4.68791800E-02 -1.12838416E-01  5.13144965E-02 -8.53013436E-02  2.62785867E-01
  4.29346995E-01  2.48231406E-01  3.37162416E-01 -2.48231406E-01 -3.37162416E-01
 -2.62785867E-01 -4.29346995E-01 -5.13144965E-02  8.53013436E-02  4.68791800E-02
  1.12838416E-01 -5.67339476E-01 -5.58239155E-01  6.46669559E-01  6.59431842E-01
 -2.33868325E-01 -2.69974708E-01 -4.29048093E-02 -2.00825980E-02  4.29048093E-02
  2.00825980E-02  2.33868325E-01  2.69974708E-01 -6.46669559E-01 -6.59431842E-01
  5.67339476E-01  5.58239155E-01  5.61867734E-01 -4.13350445E-01  6.62939543E-01
 -4.43443459E-01  6.62939543E-01 -4.43443459E-01  5.61867734E-01 -4.13350445E-01
 -8.37705172E-01  9.74885861E-01 -2.44676992E-01 -2.26632586E-01  2.44676992E-01
  2.26632586E-01  8.37705172E-01 -9.74885861E-01 -6.08475501E-01  1.17143197E+00
  5.79536194E-01 -9.42341955E-01  5.79536194E-01 -9.42341955E-01 -6.08475501E-01
  1.17143197E+00 -6.19314260E-03  1.38755958E+00  7.88480082E-01 -3.36138885E+00
 -7.88480082E-01  3.36138885E+00  6.19314260E-03 -1.38755958E+00
Total SCF Density                          R   N=          36
  1.27632977E-01  1.77968146E-01  2.52822008E-01  1.25652247E-01  1.65622543E-01
  1.43379179E-01  2.21152531E-01  3.08769879E-01  2.16898254E-01  3.83230324E-01
  8.37367574E-04 -2.47020426E-02  5.39388987E-02 -7.68524671E-04  1.43379179E-01
 -8.26038155E-02 -1.54414485E-01 -7.68524671E-04 -1.46495503E-01  2.16898254E-01
  3.83230324E-01 -4.65475393E-02 -8.76318733E-02  8.37367574E-04 -8.26038155E-02
  1.25652247E-01  2.21152531E-01  1.27632977E-01 -8.76318733E-02 -1.52179494E-01
 -2.47020426E-02 -1.54414485E-01  1.65622543E-01  3.08769879E-01  1.77968146E-01
  2.52822008E-01
QEq coupling tensors                       R   N=          24
  3.99784382E-02  0.00000000E+00  3.99784382E-02  0.00000000E+00  0.00000000E+00
 -7.99568765E-02  9.73971949E-02  0.00000000E+00  9.73971949E-02  0.00000000E+00
  0.00000000E+00 -1.94794390E-01  9.73971949E-02  0.00000000E+00  9.73971949E-02
  0.00000000E+00  0.00000000E+00 -1.94794390E-01  3.99784382E-02  0.00000000E+00
  3.99784382E-02  0.00000000E+00  0.00000000E+00 -7.99568765E-02
Mulliken Charges                           R   N=           4
  5.49635981E-02 -5.49635981E-02 -5.49635981E-02  5.49635981E-02
ONIOM Charges                              I   N=          16
           0           0           0           0           0           0
           0           0           0           0           0           0
           0           0           0           0
ONIOM Multiplicities                       I   N=          16
           1           0           0           0           0           0
           0           0           0           0           0           0
           0           0           0           0
Atom Layers                                I   N=           4
           1           1           1           1
Atom Modifiers                             I   N=           4
           0           0           0           0
Force Field                                I                0
Int Atom Modified Types                    I   N=           4
           0           0           0           0
Link Atoms                                 I   N=           4
           0           0           0           0
Atom Modified MM Charges                   R   N=           4
  0.00000000E+00  0.00000000E+00  0.00000000E+00  0.00000000E+00
Link Distances                             R   N=          16
  0.00000000E+00  0.00000000E+00  0.00000000E+00  0.00000000E+00  0.00000000E+00
  0.00000000E+00  0.00000000E+00  0.00000000E+00  0.00000000E+00  0.00000000E+00
  0.00000000E+00  0.00000000E+00  0.00000000E+00  0.00000000E+00  0.00000000E+00
  0.00000000E+00
Cartesian Gradient                         R   N=          12
  0.00000000E+00  0.00000000E+00  0.00000000E+00  0.00000000E+00  0.00000000E+00
  0.00000000E+00  0.00000000E+00  0.00000000E+00  0.00000000E+00  0.00000000E+00
  0.00000000E+00  0.00000000E+00
Dipole Moment                              R   N=           3
  0.00000000E+00  0.00000000E+00  1.24344979E-14
Quadrupole Moment                          R   N=           6
 -2.80206665E-01 -2.80206665E-01  5.60413330E-01  0.00000000E+00  0.00000000E+00
  0.00000000E+00
